LAMMPS Description

       10 atoms
       9 bonds
       8 angles

         5 atom types
         6 bond types
         7 angle types

# Cell: 29.808525 29.808525 29.808525 90.0000 90.0000 90.0000
    0.000000    29.808525 xlo xhi
    0.000000    29.808525 ylo yhi
    0.000000    29.808525 zlo zhi

Masses

         1 42.03670	# T1
         2 42.07970	# T2
         3 71.05860	# T3
         4 44.00950	# T4
         5 44.05260	# T5

Atoms

1 1 1 0.00000000 24.099298 24.399500 27.208596 0 0 0 	# T1_1	T1
2 1 2 0.00000000 25.475170 23.133770 0.534357 0 0 1 	# T2_1	T2
3 1 3 0.00000000 24.349272 21.262302 3.160330 0 0 1 	# T3_1	T3
4 1 1 0.00000000 22.584310 19.018286 2.390817 0 0 1 	# T1_2	T1
5 1 2 0.00000000 22.399169 15.432768 2.275115 0 0 1 	# T2_2	T2
6 1 3 0.00000000 23.907629 12.416622 2.640198 0 0 1 	# T3_2	T3
7 1 4 0.00000000 26.432620 12.394981 4.159154 0 0 1 	# T4_1	T4
8 1 5 0.00000000 28.433130 9.818868 3.851053 0 0 1 	# T5_1	T5
9 1 5 0.00000000 0.843519 11.493988 6.873935 1 0 1 	# T5_2	T5
10 1 5 0.00000000 3.913979 9.676026 8.363914 1 0 1 	# T5_3	T5

Bonds

         1 1 1 2
         2 2 2 3
         3 3 4 3
         4 1 4 5
         5 2 5 6
         6 4 6 7
         7 5 7 8
         8 6 8 9
         9 6 9 10

Angles

         1 1 1 2 3
         2 2 4 3 2
         3 3 5 4 3
         4 1 4 5 6
         5 4 5 6 7
         6 5 6 7 8
         7 6 7 8 9
         8 7 10 9 8
