LAMMPS Description

      4500 atoms
      4050 bonds
      3600 angles

         5 atom types
         6 bond types
         7 angle types

# Cell: 55.000000 55.000000 80.000000 90.0000 90.0000 90.0000
    0.000000    55.000000 xlo xhi
    0.000000    55.000000 ylo yhi
    0.000000    80.000000 zlo zhi

Masses

         1 42.03670	# T1
         2 42.07970	# T2
         3 71.05860	# T3
         4 44.00950	# T4
         5 44.05260	# T5

Atoms

1 1 1 0.00000000 6.161567 46.215067 30.153194 0 0 0 	# T1_1	T1
2 1 2 0.00000000 5.849672 43.063472 28.664168 0 0 0 	# T2_1	T2
3 1 3 0.00000000 2.533209 41.977208 28.908782 0 0 0 	# T3_1	T3
4 1 1 0.00000000 2.388476 39.237129 31.080276 0 0 0 	# T1_2	T1
5 1 2 0.00000000 3.563069 36.359440 29.462381 0 0 0 	# T2_2	T2
6 1 3 0.00000000 5.994754 34.767907 31.423282 0 0 0 	# T3_2	T3
7 1 4 0.00000000 7.099702 36.894398 33.976279 0 0 0 	# T4_1	T4
8 1 5 0.00000000 9.781830 35.378172 35.660442 0 0 0 	# T5_1	T5
9 1 5 0.00000000 8.803049 34.474259 38.901237 0 0 0 	# T5_2	T5
10 1 5 0.00000000 11.454040 35.021368 41.123818 0 0 0 	# T5_3	T5
11 2 1 0.00000000 40.182287 53.294025 21.339747 0 0 0 	# T1_1	T1
12 2 2 0.00000000 39.675351 1.757141 21.424652 0 1 0 	# T2_1	T2
13 2 3 0.00000000 38.060591 2.800435 18.500173 0 1 0 	# T3_1	T3
14 2 1 0.00000000 34.596624 2.617386 18.973876 0 1 0 	# T1_2	T1
15 2 2 0.00000000 33.426941 5.375529 20.803348 0 1 0 	# T2_2	T2
16 2 3 0.00000000 35.204066 5.813045 23.796099 0 1 0 	# T3_2	T3
17 2 4 0.00000000 34.073711 8.737260 25.383937 0 1 0 	# T4_1	T4
18 2 5 0.00000000 33.286703 8.133583 28.751435 0 1 0 	# T5_1	T5
19 2 5 0.00000000 32.986529 11.169342 30.472416 0 1 0 	# T5_2	T5
20 2 5 0.00000000 30.324112 10.991650 32.739514 0 1 0 	# T5_3	T5
21 3 1 0.00000000 52.747870 52.966126 66.099436 0 0 0 	# T1_1	T1
22 3 2 0.00000000 54.677515 52.323606 63.244417 0 0 0 	# T2_1	T2
23 3 3 0.00000000 3.018598 53.264121 63.768823 1 0 0 	# T3_1	T3
24 3 1 0.00000000 4.552765 53.867702 60.668280 1 0 0 	# T1_2	T1
25 3 2 0.00000000 8.026835 54.270030 61.012849 1 0 0 	# T2_2	T2
26 3 3 0.00000000 8.824298 2.689123 61.161574 1 1 0 	# T3_2	T3
27 3 4 0.00000000 11.933638 3.394766 59.669944 1 1 0 	# T4_1	T4
28 3 5 0.00000000 13.653790 5.655489 61.736815 1 1 0 	# T5_1	T5
29 3 5 0.00000000 16.659879 6.851147 60.355797 1 1 0 	# T5_2	T5
30 3 5 0.00000000 16.942715 6.108283 56.947809 1 1 0 	# T5_3	T5
31 4 1 0.00000000 3.885578 5.930777 73.155629 0 0 0 	# T1_1	T1
32 4 2 0.00000000 1.147388 5.016083 75.132402 0 0 0 	# T2_1	T2
33 4 3 0.00000000 53.994886 7.755328 75.476850 -1 0 0 	# T3_1	T3
34 4 1 0.00000000 53.539137 8.413584 78.888872 -1 0 0 	# T1_2	T1
35 4 2 0.00000000 51.619476 11.306902 79.345975 -1 0 0 	# T2_2	T2
36 4 3 0.00000000 48.427462 10.410773 0.472188 -1 0 1 	# T3_2	T3
37 4 4 0.00000000 46.388642 9.950251 77.671752 -1 0 0 	# T4_1	T4
38 4 5 0.00000000 43.508387 8.125725 78.466412 -1 0 0 	# T5_1	T5
39 4 5 0.00000000 42.009129 7.095893 75.471494 -1 0 0 	# T5_2	T5
40 4 5 0.00000000 38.636722 6.329112 76.006758 -1 0 0 	# T5_3	T5
41 5 1 0.00000000 33.271023 38.258792 14.762754 0 0 0 	# T1_1	T1
42 5 2 0.00000000 35.501663 39.231675 17.279699 0 0 0 	# T2_1	T2
43 5 3 0.00000000 38.793477 39.175541 16.080265 0 0 0 	# T3_1	T3
44 5 1 0.00000000 40.594533 41.720428 17.682223 0 0 0 	# T1_2	T1
45 5 2 0.00000000 43.966416 41.655952 16.725393 0 0 0 	# T2_2	T2
46 5 3 0.00000000 45.074711 44.923397 16.072370 0 0 0 	# T3_2	T3
47 5 4 0.00000000 45.919346 46.605827 19.037559 0 0 0 	# T4_1	T4
48 5 5 0.00000000 43.809605 49.377019 19.483452 0 0 0 	# T5_1	T5
49 5 5 0.00000000 45.531162 52.381114 18.913516 0 0 0 	# T5_2	T5
50 5 5 0.00000000 45.713349 54.229522 21.882222 0 0 0 	# T5_3	T5
51 6 1 0.00000000 17.753121 54.138451 56.315262 0 0 0 	# T1_1	T1
52 6 2 0.00000000 20.280238 52.170529 57.724755 0 0 0 	# T2_1	T2
53 6 3 0.00000000 22.498976 54.223436 59.486145 0 0 0 	# T3_1	T3
54 6 1 0.00000000 24.913369 0.491198 57.292217 0 1 0 	# T1_2	T1
55 6 2 0.00000000 27.719904 1.469771 59.139143 0 1 0 	# T2_2	T2
56 6 3 0.00000000 30.641795 0.486359 57.480087 0 1 0 	# T3_2	T3
57 6 4 0.00000000 30.580839 52.044078 56.835793 0 0 0 	# T4_1	T4
58 6 5 0.00000000 33.072347 51.318450 54.483134 0 0 0 	# T5_1	T5
59 6 5 0.00000000 32.151637 48.541445 52.563661 0 0 0 	# T5_2	T5
60 6 5 0.00000000 34.902566 46.399911 52.251284 0 0 0 	# T5_3	T5
61 7 1 0.00000000 7.060979 1.182044 73.677385 0 0 0 	# T1_1	T1
62 7 2 0.00000000 4.631609 0.351252 76.055416 0 0 0 	# T2_1	T2
63 7 3 0.00000000 2.138504 2.806449 76.074917 0 0 0 	# T3_1	T3
64 7 1 0.00000000 1.021301 3.299370 79.354495 0 0 0 	# T1_2	T1
65 7 2 0.00000000 52.558069 2.812838 79.489004 -1 0 0 	# T2_2	T2
66 7 3 0.00000000 50.934271 5.871287 78.980270 -1 0 0 	# T3_2	T3
67 7 4 0.00000000 47.996310 5.334334 77.156072 -1 0 0 	# T4_1	T4
68 7 5 0.00000000 47.659593 7.819819 74.715057 -1 0 0 	# T5_1	T5
69 7 5 0.00000000 45.174232 6.871675 72.440163 -1 0 0 	# T5_2	T5
70 7 5 0.00000000 45.295797 8.963551 69.636899 -1 0 0 	# T5_3	T5
71 8 1 0.00000000 5.686755 15.833472 10.328583 0 0 0 	# T1_1	T1
72 8 2 0.00000000 4.791108 15.541103 6.957969 0 0 0 	# T2_1	T2
73 8 3 0.00000000 1.920596 13.558071 6.702341 0 0 0 	# T3_1	T3
74 8 1 0.00000000 0.594236 13.819250 3.475645 0 0 0 	# T1_2	T1
75 8 2 0.00000000 3.157862 14.376491 1.159164 0 0 0 	# T2_2	T2
76 8 3 0.00000000 2.157042 13.117856 78.048309 0 0 -1 	# T3_2	T3
77 8 4 0.00000000 3.834231 10.110077 77.420966 0 0 -1 	# T4_1	T4
78 8 5 0.00000000 1.572953 7.448553 77.093638 0 0 -1 	# T5_1	T5
79 8 5 0.00000000 53.288028 8.602833 76.704702 -1 0 -1 	# T5_2	T5
80 8 5 0.00000000 51.566136 6.407354 74.582861 -1 0 -1 	# T5_3	T5
81 9 1 0.00000000 7.565272 54.881613 69.066267 0 0 0 	# T1_1	T1
82 9 2 0.00000000 7.592969 3.285366 68.251562 0 1 0 	# T2_1	T2
83 9 3 0.00000000 10.466201 4.030298 66.385127 0 1 0 	# T3_1	T3
84 9 1 0.00000000 13.248180 4.496845 68.478505 0 1 0 	# T1_2	T1
85 9 2 0.00000000 14.530923 1.403175 69.523225 0 1 0 	# T2_2	T2
86 9 3 0.00000000 18.029815 1.335400 69.209715 0 1 0 	# T3_2	T3
87 9 4 0.00000000 19.496522 0.579896 72.310439 0 1 0 	# T4_1	T4
88 9 5 0.00000000 22.077617 53.233357 71.937255 0 0 0 	# T5_1	T5
89 9 5 0.00000000 25.147881 54.687322 72.807777 0 0 0 	# T5_2	T5
90 9 5 0.00000000 26.841106 52.637423 75.089054 0 0 0 	# T5_3	T5
91 10 1 0.00000000 41.428591 39.209145 8.260219 0 0 0 	# T1_1	T1
92 10 2 0.00000000 38.703823 37.059740 7.773428 0 0 0 	# T2_1	T2
93 10 3 0.00000000 39.759877 33.953917 6.530869 0 0 0 	# T3_1	T3
94 10 1 0.00000000 38.058144 31.419603 8.259051 0 0 0 	# T1_2	T1
95 10 2 0.00000000 37.421580 28.639045 6.206293 0 0 0 	# T2_2	T2
96 10 3 0.00000000 35.530328 29.493840 3.372041 0 0 0 	# T3_2	T3
97 10 4 0.00000000 32.434756 30.872452 4.271596 0 0 0 	# T4_1	T4
98 10 5 0.00000000 29.997179 30.000219 1.903051 0 0 0 	# T5_1	T5
99 10 5 0.00000000 30.440658 31.851692 78.962041 0 0 -1 	# T5_2	T5
100 10 5 0.00000000 31.380316 29.700311 76.364529 0 0 -1 	# T5_3	T5
101 11 1 0.00000000 51.653607 6.789617 34.057222 0 0 0 	# T1_1	T1
102 11 2 0.00000000 54.421625 8.312044 32.554442 0 0 0 	# T2_1	T2
103 11 3 0.00000000 1.285481 5.900047 30.833441 1 0 0 	# T3_1	T3
104 11 1 0.00000000 0.275299 5.817217 27.483397 1 0 0 	# T1_2	T1
105 11 2 0.00000000 2.428924 3.736930 25.670916 1 0 0 	# T2_2	T2
106 11 3 0.00000000 5.654247 5.095944 25.696402 1 0 0 	# T3_2	T3
107 11 4 0.00000000 7.770454 3.042254 27.581914 1 0 0 	# T4_1	T4
108 11 5 0.00000000 9.405505 4.970442 30.002646 1 0 0 	# T5_1	T5
109 11 5 0.00000000 12.867116 4.580307 29.662124 1 0 0 	# T5_2	T5
110 11 5 0.00000000 14.451451 5.675904 32.584483 1 0 0 	# T5_3	T5
111 12 1 0.00000000 9.386742 14.924268 20.834006 0 0 0 	# T1_1	T1
112 12 2 0.00000000 6.634686 14.410439 22.941965 0 0 0 	# T2_1	T2
113 12 3 0.00000000 5.396250 11.171314 22.451305 0 0 0 	# T3_1	T3
114 12 1 0.00000000 3.284160 10.204836 25.084580 0 0 0 	# T1_2	T1
115 12 2 0.00000000 3.950761 12.036422 27.997612 0 0 0 	# T2_2	T2
116 12 3 0.00000000 1.184408 11.900770 30.159051 0 0 0 	# T3_2	T3
117 12 4 0.00000000 0.857201 8.711278 31.590105 0 0 0 	# T4_1	T4
118 12 5 0.00000000 1.473539 8.861219 35.042985 0 0 0 	# T5_1	T5
119 12 5 0.00000000 53.676179 7.804730 36.882028 -1 0 0 	# T5_2	T5
120 12 5 0.00000000 54.535443 7.546095 40.269950 -1 0 0 	# T5_3	T5
121 13 1 0.00000000 44.851967 16.444774 27.434735 0 0 0 	# T1_1	T1
122 13 2 0.00000000 42.673787 13.906164 26.407560 0 0 0 	# T2_1	T2
123 13 3 0.00000000 41.082353 14.777892 23.403490 0 0 0 	# T3_1	T3
124 13 1 0.00000000 43.284979 16.242926 21.088577 0 0 0 	# T1_2	T1
125 13 2 0.00000000 41.398502 17.386283 18.348048 0 0 0 	# T2_2	T2
126 13 3 0.00000000 43.382622 17.989296 15.511869 0 0 0 	# T3_2	T3
127 13 4 0.00000000 41.990057 20.593901 13.599021 0 0 0 	# T4_1	T4
128 13 5 0.00000000 40.136657 19.328911 10.895342 0 0 0 	# T5_1	T5
129 13 5 0.00000000 40.001070 21.713310 8.325932 0 0 0 	# T5_2	T5
130 13 5 0.00000000 37.016188 21.442820 6.511128 0 0 0 	# T5_3	T5
131 14 1 0.00000000 1.789582 53.623922 20.037602 0 0 0 	# T1_1	T1
132 14 2 0.00000000 54.699387 50.831841 20.299332 -1 0 0 	# T2_1	T2
133 14 3 0.00000000 54.886347 48.944412 17.357062 -1 0 0 	# T3_1	T3
134 14 1 0.00000000 51.854668 47.240208 16.970866 -1 0 0 	# T1_2	T1
135 14 2 0.00000000 50.463584 47.824626 13.819408 -1 0 0 	# T2_2	T2
136 14 3 0.00000000 48.076812 45.344448 13.178161 -1 0 0 	# T3_2	T3
137 14 4 0.00000000 48.463559 44.192949 9.897882 -1 0 0 	# T4_1	T4
138 14 5 0.00000000 48.959223 40.729146 9.908611 -1 0 0 	# T5_1	T5
139 14 5 0.00000000 51.914948 39.968746 8.195164 -1 0 0 	# T5_2	T5
140 14 5 0.00000000 51.290880 37.428499 5.869362 -1 0 0 	# T5_3	T5
141 15 1 0.00000000 9.999947 32.486801 25.533196 0 0 0 	# T1_1	T1
142 15 2 0.00000000 7.954211 29.664751 25.220284 0 0 0 	# T2_1	T2
143 15 3 0.00000000 9.668663 26.856633 26.413141 0 0 0 	# T3_1	T3
144 15 1 0.00000000 11.204098 25.220609 23.725505 0 0 0 	# T1_2	T1
145 15 2 0.00000000 14.302092 26.739313 23.142304 0 0 0 	# T2_2	T2
146 15 3 0.00000000 15.946143 25.207589 20.457688 0 0 0 	# T3_2	T3
147 15 4 0.00000000 16.314603 21.774433 21.034017 0 0 0 	# T4_1	T4
148 15 5 0.00000000 16.481967 20.155404 17.934267 0 0 0 	# T5_1	T5
149 15 5 0.00000000 18.520680 17.319707 18.139372 0 0 0 	# T5_2	T5
150 15 5 0.00000000 17.350462 14.918900 15.876090 0 0 0 	# T5_3	T5
151 16 1 0.00000000 5.906940 40.622694 60.891060 0 0 0 	# T1_1	T1
152 16 2 0.00000000 8.580220 39.791007 58.780045 0 0 0 	# T2_1	T2
153 16 3 0.00000000 11.636067 40.486161 60.349404 0 0 0 	# T3_1	T3
154 16 1 0.00000000 13.102282 37.599253 61.721932 0 0 0 	# T1_2	T1
155 16 2 0.00000000 12.787272 34.742903 59.688581 0 0 0 	# T2_2	T2
156 16 3 0.00000000 13.877153 35.290835 56.394535 0 0 0 	# T3_2	T3
157 16 4 0.00000000 17.042403 33.869818 55.808855 0 0 0 	# T4_1	T4
158 16 5 0.00000000 16.899775 30.362784 55.663356 0 0 0 	# T5_1	T5
159 16 5 0.00000000 19.258307 29.150865 53.361492 0 0 0 	# T5_2	T5
160 16 5 0.00000000 18.958769 25.670664 53.056920 0 0 0 	# T5_3	T5
161 17 1 0.00000000 31.306591 38.691349 52.241652 0 0 0 	# T1_1	T1
162 17 2 0.00000000 34.548029 40.003461 52.400351 0 0 0 	# T2_1	T2
163 17 3 0.00000000 34.810802 42.240806 55.085732 0 0 0 	# T3_1	T3
164 17 1 0.00000000 32.842655 41.149755 57.771853 0 0 0 	# T1_2	T1
165 17 2 0.00000000 32.604210 43.684807 60.187901 0 0 0 	# T2_2	T2
166 17 3 0.00000000 29.428170 43.592576 61.658910 0 0 0 	# T3_2	T3
167 17 4 0.00000000 27.004708 43.341645 59.147491 0 0 0 	# T4_1	T4
168 17 5 0.00000000 24.591979 40.983294 60.076706 0 0 0 	# T5_1	T5
169 17 5 0.00000000 23.943885 38.852752 57.378764 0 0 0 	# T5_2	T5
170 17 5 0.00000000 20.494279 38.687603 56.820155 0 0 0 	# T5_3	T5
171 18 1 0.00000000 2.075030 20.146922 30.747102 0 0 0 	# T1_1	T1
172 18 2 0.00000000 4.202758 18.559396 33.027122 0 0 0 	# T2_1	T2
173 18 3 0.00000000 4.817514 20.630843 35.790440 0 0 0 	# T3_1	T3
174 18 1 0.00000000 4.271548 23.999302 34.987703 0 0 0 	# T1_2	T1
175 18 2 0.00000000 5.922126 26.040406 37.314079 0 0 0 	# T2_2	T2
176 18 3 0.00000000 3.630780 27.827455 39.289673 0 0 0 	# T3_2	T3
177 18 4 0.00000000 0.910941 28.947261 37.379157 0 0 0 	# T4_1	T4
178 18 5 0.00000000 1.552405 32.155738 36.116436 0 0 0 	# T5_1	T5
179 18 5 0.00000000 54.574008 34.537482 37.759030 -1 0 0 	# T5_2	T5
180 18 5 0.00000000 0.028485 37.668943 36.252907 0 0 0 	# T5_3	T5
181 19 1 0.00000000 53.045530 30.627630 58.316340 0 0 0 	# T1_1	T1
182 19 2 0.00000000 54.678534 33.415316 59.662656 0 0 0 	# T2_1	T2
183 19 3 0.00000000 53.680996 36.295066 57.940137 0 0 0 	# T3_1	T3
184 19 1 0.00000000 0.920839 36.941392 55.326240 1 0 0 	# T1_2	T1
185 19 2 0.00000000 2.967499 34.145291 54.818261 1 0 0 	# T2_2	T2
186 19 3 0.00000000 2.669431 32.927227 51.541941 1 0 0 	# T3_2	T3
187 19 4 0.00000000 5.103705 30.443018 51.101983 1 0 0 	# T4_1	T4
188 19 5 0.00000000 4.708552 28.742167 48.063420 1 0 0 	# T5_1	T5
189 19 5 0.00000000 7.802553 27.346446 47.184972 1 0 0 	# T5_2	T5
190 19 5 0.00000000 7.363742 24.705869 44.928661 1 0 0 	# T5_3	T5
191 20 1 0.00000000 24.946807 40.453382 18.200101 0 0 0 	# T1_1	T1
192 20 2 0.00000000 27.058438 40.961493 20.945803 0 0 0 	# T2_1	T2
193 20 3 0.00000000 30.186141 39.533765 20.293228 0 0 0 	# T3_1	T3
194 20 1 0.00000000 32.254235 41.882144 18.702853 0 0 0 	# T1_2	T1
195 20 2 0.00000000 35.574447 40.756891 18.706248 0 0 0 	# T2_2	T2
196 20 3 0.00000000 37.556467 42.828496 16.685852 0 0 0 	# T3_2	T3
197 20 4 0.00000000 37.634732 46.081926 17.999738 0 0 0 	# T4_1	T4
198 20 5 0.00000000 35.183299 48.054405 16.447640 0 0 0 	# T5_1	T5
199 20 5 0.00000000 36.582611 51.052058 15.284141 0 0 0 	# T5_2	T5
200 20 5 0.00000000 34.043856 53.312049 14.399390 0 0 0 	# T5_3	T5
201 21 1 0.00000000 10.551456 39.389533 71.942716 0 0 0 	# T1_1	T1
202 21 2 0.00000000 9.034938 41.437097 69.541736 0 0 0 	# T2_1	T2
203 21 3 0.00000000 6.259233 43.033029 70.954683 0 0 0 	# T3_1	T3
204 21 1 0.00000000 7.330113 45.836295 72.751502 0 0 0 	# T1_2	T1
205 21 2 0.00000000 4.542281 47.665333 73.818192 0 0 0 	# T2_2	T2
206 21 3 0.00000000 2.955726 45.937632 76.416453 0 0 0 	# T3_2	T3
207 21 4 0.00000000 54.487463 46.327454 76.147463 -1 0 0 	# T4_1	T4
208 21 5 0.00000000 53.253276 44.144891 73.702453 -1 0 0 	# T5_1	T5
209 21 5 0.00000000 50.542511 45.633030 72.061754 -1 0 0 	# T5_2	T5
210 21 5 0.00000000 50.862745 45.132784 68.612661 -1 0 0 	# T5_3	T5
211 22 1 0.00000000 52.017139 10.795651 6.417061 0 0 0 	# T1_1	T1
212 22 2 0.00000000 52.867478 14.089240 5.600358 0 0 0 	# T2_1	T2
213 22 3 0.00000000 49.941989 15.951336 5.137715 0 0 0 	# T3_1	T3
214 22 1 0.00000000 49.412187 16.508087 1.721367 0 0 0 	# T1_2	T1
215 22 2 0.00000000 52.347663 15.848947 79.929920 0 0 -1 	# T2_2	T2
216 22 3 0.00000000 53.495482 18.795509 78.426285 0 0 -1 	# T3_2	T3
217 22 4 0.00000000 1.947895 18.559883 77.888206 1 0 -1 	# T4_1	T4
218 22 5 0.00000000 2.777168 20.134760 74.872739 1 0 -1 	# T5_1	T5
219 22 5 0.00000000 5.634486 22.110683 75.325200 1 0 -1 	# T5_2	T5
220 22 5 0.00000000 8.372306 20.073616 76.108733 1 0 -1 	# T5_3	T5
221 23 1 0.00000000 28.232486 53.665604 66.269320 0 0 0 	# T1_1	T1
222 23 2 0.00000000 29.826636 0.052645 69.058769 0 1 0 	# T2_1	T2
223 23 3 0.00000000 33.293837 54.721480 68.711178 0 0 0 	# T3_1	T3
224 23 1 0.00000000 34.890872 2.203639 70.594996 0 1 0 	# T1_2	T1
225 23 2 0.00000000 37.875677 3.133469 69.018258 0 1 0 	# T2_2	T2
226 23 3 0.00000000 37.780118 6.548798 68.255002 0 1 0 	# T3_2	T3
227 23 4 0.00000000 40.427714 7.338978 66.105648 0 1 0 	# T4_1	T4
228 23 5 0.00000000 39.559792 6.483286 62.825145 0 1 0 	# T5_1	T5
229 23 5 0.00000000 42.469493 6.105702 60.918965 0 1 0 	# T5_2	T5
230 23 5 0.00000000 43.934043 9.241599 60.397642 0 1 0 	# T5_3	T5
231 24 1 0.00000000 43.687039 18.331140 34.404324 0 0 0 	# T1_1	T1
232 24 2 0.00000000 45.224739 15.196778 34.158488 0 0 0 	# T2_1	T2
233 24 3 0.00000000 42.854618 12.815695 33.181542 0 0 0 	# T3_1	T3
234 24 1 0.00000000 43.238059 9.918559 35.105980 0 0 0 	# T1_2	T1
235 24 2 0.00000000 45.580018 10.484524 37.643011 0 0 0 	# T2_2	T2
236 24 3 0.00000000 44.964635 13.581111 39.152896 0 0 0 	# T3_2	T3
237 24 4 0.00000000 41.601834 13.809090 40.095562 0 0 0 	# T4_1	T4
238 24 5 0.00000000 40.885186 17.125583 40.961729 0 0 0 	# T5_1	T5
239 24 5 0.00000000 37.421026 17.628568 40.912461 0 0 0 	# T5_2	T5
240 24 5 0.00000000 36.544561 19.921417 43.408019 0 0 0 	# T5_3	T5
241 25 1 0.00000000 16.913893 35.380388 4.537782 0 0 0 	# T1_1	T1
242 25 2 0.00000000 17.161258 33.221313 7.282549 0 0 0 	# T2_1	T2
243 25 3 0.00000000 16.229398 29.991196 6.311240 0 0 0 	# T3_1	T3
244 25 1 0.00000000 18.410904 27.674826 7.768682 0 0 0 	# T1_2	T1
245 25 2 0.00000000 21.613834 29.072854 7.970399 0 0 0 	# T2_2	T2
246 25 3 0.00000000 21.844665 31.034214 10.860661 0 0 0 	# T3_2	T3
247 25 4 0.00000000 22.373251 34.375477 9.962115 0 0 0 	# T4_1	T4
248 25 5 0.00000000 20.253466 36.430934 11.839926 0 0 0 	# T5_1	T5
249 25 5 0.00000000 17.055877 36.416293 10.418116 0 0 0 	# T5_2	T5
250 25 5 0.00000000 14.732561 37.555473 12.773974 0 0 0 	# T5_3	T5
251 26 1 0.00000000 30.715361 38.654974 56.395775 0 0 0 	# T1_1	T1
252 26 2 0.00000000 30.130682 41.755302 57.908929 0 0 0 	# T2_1	T2
253 26 3 0.00000000 29.112024 41.246935 61.216563 0 0 0 	# T3_1	T3
254 26 1 0.00000000 25.693301 41.934743 61.492930 0 0 0 	# T1_2	T1
255 26 2 0.00000000 23.921193 38.921542 61.763873 0 0 0 	# T2_2	T2
256 26 3 0.00000000 21.539315 38.689296 59.200587 0 0 0 	# T3_2	T3
257 26 4 0.00000000 18.320381 38.989674 60.550848 0 0 0 	# T4_1	T4
258 26 5 0.00000000 16.010408 37.140261 58.686939 0 0 0 	# T5_1	T5
259 26 5 0.00000000 13.118206 39.066621 58.264405 0 0 0 	# T5_2	T5
260 26 5 0.00000000 10.610264 37.122047 56.790630 0 0 0 	# T5_3	T5
261 27 1 0.00000000 7.863885 20.705967 6.161524 0 0 0 	# T1_1	T1
262 27 2 0.00000000 5.310512 18.344873 6.562092 0 0 0 	# T2_1	T2
263 27 3 0.00000000 2.440878 19.961071 7.745390 0 0 0 	# T3_1	T3
264 27 1 0.00000000 0.831237 17.974667 10.141805 0 0 0 	# T1_2	T1
265 27 2 0.00000000 3.124524 16.726471 12.479812 0 0 0 	# T2_2	T2
266 27 3 0.00000000 1.343020 15.281286 15.131073 0 0 0 	# T3_2	T3
267 27 4 0.00000000 3.135577 12.600843 16.503556 0 0 0 	# T4_1	T4
268 27 5 0.00000000 2.121242 9.595568 15.014221 0 0 0 	# T5_1	T5
269 27 5 0.00000000 54.743434 8.000128 17.032626 -1 0 0 	# T5_2	T5
270 27 5 0.00000000 1.291257 5.497190 18.930171 0 0 0 	# T5_3	T5
271 28 1 0.00000000 49.699412 37.602364 28.371035 0 0 0 	# T1_1	T1
272 28 2 0.00000000 48.109503 35.092153 30.225033 0 0 0 	# T2_1	T2
273 28 3 0.00000000 46.172724 33.100328 28.094955 0 0 0 	# T3_1	T3
274 28 1 0.00000000 48.250769 31.575282 25.724463 0 0 0 	# T1_2	T1
275 28 2 0.00000000 48.635006 28.163077 26.438021 0 0 0 	# T2_2	T2
276 28 3 0.00000000 51.091058 27.710423 28.898915 0 0 0 	# T3_2	T3
277 28 4 0.00000000 53.843334 25.904638 27.643344 0 0 0 	# T4_1	T4
278 28 5 0.00000000 53.775575 22.510783 28.594686 0 0 0 	# T5_1	T5
279 28 5 0.00000000 1.175426 21.875956 31.062393 1 0 0 	# T5_2	T5
280 28 5 0.00000000 0.573226 18.719248 32.455607 1 0 0 	# T5_3	T5
281 29 1 0.00000000 40.742192 41.734569 33.962922 0 0 0 	# T1_1	T1
282 29 2 0.00000000 38.569846 39.919488 36.018352 0 0 0 	# T2_1	T2
283 29 3 0.00000000 35.611796 41.724672 36.556844 0 0 0 	# T3_1	T3
284 29 1 0.00000000 33.080723 39.558295 37.663966 0 0 0 	# T1_2	T1
285 29 2 0.00000000 30.316857 41.408624 38.780805 0 0 0 	# T2_2	T2
286 29 3 0.00000000 29.190965 40.178634 41.869047 0 0 0 	# T3_2	T3
287 29 4 0.00000000 30.291306 42.262043 44.463088 0 0 0 	# T4_1	T4
288 29 5 0.00000000 28.654176 41.392508 47.436068 0 0 0 	# T5_1	T5
289 29 5 0.00000000 30.792539 41.918069 50.159000 0 0 0 	# T5_2	T5
290 29 5 0.00000000 29.611344 40.138375 52.933121 0 0 0 	# T5_3	T5
291 30 1 0.00000000 50.675215 37.937960 36.307250 0 0 0 	# T1_1	T1
292 30 2 0.00000000 51.773286 37.601079 39.612819 0 0 0 	# T2_1	T2
293 30 3 0.00000000 53.957495 40.221515 40.389088 0 0 0 	# T3_1	T3
294 30 1 0.00000000 52.181328 42.813950 41.928523 0 0 0 	# T1_2	T1
295 30 2 0.00000000 49.067105 41.639103 43.005836 0 0 0 	# T2_2	T2
296 30 3 0.00000000 46.760791 41.849596 40.381118 0 0 0 	# T3_2	T3
297 30 4 0.00000000 45.411598 38.676572 39.763503 0 0 0 	# T4_1	T4
298 30 5 0.00000000 45.519390 37.991579 36.329934 0 0 0 	# T5_1	T5
299 30 5 0.00000000 44.385627 34.734709 35.750412 0 0 0 	# T5_2	T5
300 30 5 0.00000000 46.264703 33.306856 33.166886 0 0 0 	# T5_3	T5
301 31 1 0.00000000 29.149316 25.123093 13.934134 0 0 0 	# T1_1	T1
302 31 2 0.00000000 28.018615 28.083849 12.435218 0 0 0 	# T2_1	T2
303 31 3 0.00000000 25.956104 27.343963 9.701174 0 0 0 	# T3_1	T3
304 31 1 0.00000000 27.303073 28.714974 6.771803 0 0 0 	# T1_2	T1
305 31 2 0.00000000 29.243500 31.523169 7.552603 0 0 0 	# T2_2	T2
306 31 3 0.00000000 27.239826 34.396151 7.534165 0 0 0 	# T3_2	T3
307 31 4 0.00000000 26.537233 35.357112 10.827721 0 0 0 	# T4_1	T4
308 31 5 0.00000000 27.059986 38.796399 11.216445 0 0 0 	# T5_1	T5
309 31 5 0.00000000 28.450670 39.419601 14.369229 0 0 0 	# T5_2	T5
310 31 5 0.00000000 30.669021 42.117779 14.144842 0 0 0 	# T5_3	T5
311 32 1 0.00000000 38.769181 24.844217 28.403637 0 0 0 	# T1_1	T1
312 32 2 0.00000000 36.302395 23.612293 26.224927 0 0 0 	# T2_1	T2
313 32 3 0.00000000 34.971854 26.218674 24.310709 0 0 0 	# T3_1	T3
314 32 1 0.00000000 33.592864 24.918297 21.365780 0 0 0 	# T1_2	T1
315 32 2 0.00000000 33.252865 21.421559 21.576751 0 0 0 	# T2_2	T2
316 32 3 0.00000000 31.932991 20.434786 24.669688 0 0 0 	# T3_2	T3
317 32 4 0.00000000 30.359490 17.318559 24.316015 0 0 0 	# T4_1	T4
318 32 5 0.00000000 27.021665 17.579801 25.321187 0 0 0 	# T5_1	T5
319 32 5 0.00000000 26.418186 15.370535 27.961932 0 0 0 	# T5_2	T5
320 32 5 0.00000000 25.828452 17.241466 30.854185 0 0 0 	# T5_3	T5
321 33 1 0.00000000 51.267777 24.297240 29.151602 0 0 0 	# T1_1	T1
322 33 2 0.00000000 51.102376 24.915057 25.713560 0 0 0 	# T2_1	T2
323 33 3 0.00000000 54.104822 26.387299 24.699031 0 0 0 	# T3_1	T3
324 33 1 0.00000000 1.699287 24.046810 24.836073 1 0 0 	# T1_2	T1
325 33 2 0.00000000 2.558609 23.070944 21.586704 1 0 0 	# T2_2	T2
326 33 3 0.00000000 1.985044 19.641202 21.207020 1 0 0 	# T3_2	T3
327 33 4 0.00000000 5.049371 17.991240 20.834320 1 0 0 	# T4_1	T4
328 33 5 0.00000000 5.137014 16.358365 17.738890 1 0 0 	# T5_1	T5
329 33 5 0.00000000 8.336297 16.652149 16.346478 1 0 0 	# T5_2	T5
330 33 5 0.00000000 8.936773 13.927162 14.231205 1 0 0 	# T5_3	T5
331 34 1 0.00000000 28.850976 46.722822 20.640781 0 0 0 	# T1_1	T1
332 34 2 0.00000000 25.918504 48.373507 21.609241 0 0 0 	# T2_1	T2
333 34 3 0.00000000 26.776941 51.355788 23.230534 0 0 0 	# T3_1	T3
334 34 1 0.00000000 27.733299 50.471474 26.492067 0 0 0 	# T1_2	T1
335 34 2 0.00000000 30.069064 52.708370 27.847032 0 0 0 	# T2_2	T2
336 34 3 0.00000000 32.989906 52.783945 25.911730 0 0 0 	# T3_2	T3
337 34 4 0.00000000 35.116723 50.132435 26.766505 0 0 0 	# T4_1	T4
338 34 5 0.00000000 38.233376 50.600267 25.230534 0 0 0 	# T5_1	T5
339 34 5 0.00000000 40.743608 50.730787 27.668107 0 0 0 	# T5_2	T5
340 34 5 0.00000000 42.639800 47.790366 27.549420 0 0 0 	# T5_3	T5
341 35 1 0.00000000 28.816796 27.985499 66.523002 0 0 0 	# T1_1	T1
342 35 2 0.00000000 32.243736 27.345546 66.902457 0 0 0 	# T2_1	T2
343 35 3 0.00000000 33.699840 29.572871 69.191182 0 0 0 	# T3_1	T3
344 35 1 0.00000000 36.847809 28.346156 70.160651 0 0 0 	# T1_2	T1
345 35 2 0.00000000 39.134637 30.990289 70.563248 0 0 0 	# T2_2	T2
346 35 3 0.00000000 42.419058 29.754840 70.716277 0 0 0 	# T3_2	T3
347 35 4 0.00000000 44.685096 32.360029 71.355545 0 0 0 	# T4_1	T4
348 35 5 0.00000000 47.971315 31.284586 70.752862 0 0 0 	# T5_1	T5
349 35 5 0.00000000 49.756529 31.135944 73.766365 0 0 0 	# T5_2	T5
350 35 5 0.00000000 52.682477 33.046530 73.520995 0 0 0 	# T5_3	T5
351 36 1 0.00000000 2.957712 49.471333 9.167136 0 0 0 	# T1_1	T1
352 36 2 0.00000000 4.763375 46.596739 10.021252 0 0 0 	# T2_1	T2
353 36 3 0.00000000 2.792498 43.747569 9.452546 0 0 0 	# T3_1	T3
354 36 1 0.00000000 4.864505 41.007510 8.759957 0 0 0 	# T1_2	T1
355 36 2 0.00000000 2.987853 38.176100 7.896186 0 0 0 	# T2_2	T2
356 36 3 0.00000000 1.805223 38.480286 4.612520 0 0 0 	# T3_2	T3
357 36 4 0.00000000 2.763232 35.700980 2.703330 0 0 0 	# T4_1	T4
358 36 5 0.00000000 1.274139 35.923549 79.539659 0 0 -1 	# T5_1	T5
359 36 5 0.00000000 1.933600 33.026651 77.681703 0 0 -1 	# T5_2	T5
360 36 5 0.00000000 0.508677 33.329632 74.495646 0 0 -1 	# T5_3	T5
361 37 1 0.00000000 10.778061 10.706277 29.944412 0 0 0 	# T1_1	T1
362 37 2 0.00000000 8.106591 10.537989 32.199435 0 0 0 	# T2_1	T2
363 37 3 0.00000000 5.135932 11.418293 30.571934 0 0 0 	# T3_1	T3
364 37 1 0.00000000 3.763651 8.609999 28.994723 0 0 0 	# T1_2	T1
365 37 2 0.00000000 3.819934 5.863343 31.164418 0 0 0 	# T2_2	T2
366 37 3 0.00000000 2.700083 6.827966 34.335914 0 0 0 	# T3_2	T3
367 37 4 0.00000000 4.842742 5.498072 36.762247 0 0 0 	# T4_1	T4
368 37 5 0.00000000 4.952604 7.644556 39.523643 0 0 0 	# T5_1	T5
369 37 5 0.00000000 5.982048 5.845601 42.342999 0 0 0 	# T5_2	T5
370 37 5 0.00000000 3.283752 5.478826 44.541725 0 0 0 	# T5_3	T5
371 38 1 0.00000000 18.747663 52.858399 15.917995 0 0 0 	# T1_1	T1
372 38 2 0.00000000 17.937321 49.461407 15.683201 0 0 0 	# T2_1	T2
373 38 3 0.00000000 16.350630 48.421608 18.625819 0 0 0 	# T3_1	T3
374 38 1 0.00000000 15.726421 44.979497 18.445924 0 0 0 	# T1_2	T1
375 38 2 0.00000000 12.264085 44.387617 18.521973 0 0 0 	# T2_2	T2
376 38 3 0.00000000 11.061801 43.335024 15.393439 0 0 0 	# T3_2	T3
377 38 4 0.00000000 8.454833 45.453531 14.351034 0 0 0 	# T4_1	T4
378 38 5 0.00000000 5.284525 43.994795 14.682496 0 0 0 	# T5_1	T5
379 38 5 0.00000000 2.937608 46.499134 15.423056 0 0 0 	# T5_2	T5
380 38 5 0.00000000 1.673668 47.910414 12.474354 0 0 0 	# T5_3	T5
381 39 1 0.00000000 19.403088 24.383239 1.778704 0 0 0 	# T1_1	T1
382 39 2 0.00000000 16.234521 24.272544 0.293664 0 0 0 	# T2_1	T2
383 39 3 0.00000000 16.185496 21.771502 77.845289 0 0 -1 	# T3_1	T3
384 39 1 0.00000000 16.147693 23.249704 74.673517 0 0 -1 	# T1_2	T1
385 39 2 0.00000000 19.373636 23.179393 73.318604 0 0 -1 	# T2_2	T2
386 39 3 0.00000000 21.547814 24.970430 75.395560 0 0 -1 	# T3_2	T3
387 39 4 0.00000000 21.860018 28.248766 74.210920 0 0 -1 	# T4_1	T4
388 39 5 0.00000000 24.633489 29.763315 75.715207 0 0 -1 	# T5_1	T5
389 39 5 0.00000000 26.091744 32.004757 73.459636 0 0 -1 	# T5_2	T5
390 39 5 0.00000000 29.528903 31.381835 73.237344 0 0 -1 	# T5_3	T5
391 40 1 0.00000000 5.494269 16.964524 76.873060 0 0 0 	# T1_1	T1
392 40 2 0.00000000 4.483295 19.725977 74.974083 0 0 0 	# T2_1	T2
393 40 3 0.00000000 2.417196 18.670706 72.349105 0 0 0 	# T3_1	T3
394 40 1 0.00000000 0.126223 21.208477 71.589581 0 0 0 	# T1_2	T1
395 40 2 0.00000000 0.246774 21.977866 68.173776 0 0 0 	# T2_2	T2
396 40 3 0.00000000 53.508640 24.970901 67.634957 -1 0 0 	# T3_2	T3
397 40 4 0.00000000 53.999488 26.079240 64.351169 -1 0 0 	# T4_1	T4
398 40 5 0.00000000 1.404737 28.627116 64.305469 0 0 0 	# T5_1	T5
399 40 5 0.00000000 2.001813 29.567992 60.987132 0 0 0 	# T5_2	T5
400 40 5 0.00000000 4.912119 31.504381 60.823154 0 0 0 	# T5_3	T5
401 41 1 0.00000000 4.604771 32.726277 2.970869 0 0 0 	# T1_1	T1
402 41 2 0.00000000 3.820173 29.316784 2.936283 0 0 0 	# T2_1	T2
403 41 3 0.00000000 6.711593 27.425023 3.496722 0 0 0 	# T3_1	T3
404 41 1 0.00000000 7.592002 27.570660 6.883007 0 0 0 	# T1_2	T1
405 41 2 0.00000000 11.034033 28.153242 7.173496 0 0 0 	# T2_2	T2
406 41 3 0.00000000 11.876637 31.060544 5.412385 0 0 0 	# T3_2	T3
407 41 4 0.00000000 14.486409 32.741055 7.038749 0 0 0 	# T4_1	T4
408 41 5 0.00000000 16.942991 33.614048 4.697236 0 0 0 	# T5_1	T5
409 41 5 0.00000000 17.333831 37.100623 4.597628 0 0 0 	# T5_2	T5
410 41 5 0.00000000 19.095780 37.991878 1.706491 0 0 0 	# T5_3	T5
411 42 1 0.00000000 28.888321 7.751057 41.966078 0 0 0 	# T1_1	T1
412 42 2 0.00000000 30.484097 10.866864 41.869970 0 0 0 	# T2_1	T2
413 42 3 0.00000000 29.063884 12.999192 44.259007 0 0 0 	# T3_1	T3
414 42 1 0.00000000 25.827863 13.871254 43.249205 0 0 0 	# T1_2	T1
415 42 2 0.00000000 24.936191 17.013499 44.521946 0 0 0 	# T2_2	T2
416 42 3 0.00000000 27.174472 19.471392 43.417903 0 0 0 	# T3_2	T3
417 42 4 0.00000000 26.136555 22.595868 44.619266 0 0 0 	# T4_1	T4
418 42 5 0.00000000 28.482350 23.836525 46.907481 0 0 0 	# T5_1	T5
419 42 5 0.00000000 26.950780 26.212311 48.976560 0 0 0 	# T5_2	T5
420 42 5 0.00000000 29.317785 27.614922 51.140535 0 0 0 	# T5_3	T5
421 43 1 0.00000000 23.117440 6.359156 47.584013 0 0 0 	# T1_1	T1
422 43 2 0.00000000 26.275860 7.846720 47.352335 0 0 0 	# T2_1	T2
423 43 3 0.00000000 26.278138 10.878080 49.097659 0 0 0 	# T3_1	T3
424 43 1 0.00000000 23.535161 12.815633 48.105565 0 0 0 	# T1_2	T1
425 43 2 0.00000000 23.372304 12.922248 44.611609 0 0 0 	# T2_2	T2
426 43 3 0.00000000 25.268823 15.616999 43.432539 0 0 0 	# T3_2	T3
427 43 4 0.00000000 28.649185 14.713699 43.371167 0 0 0 	# T4_1	T4
428 43 5 0.00000000 30.284306 16.124669 46.125502 0 0 0 	# T5_1	T5
429 43 5 0.00000000 33.655349 15.183443 46.077851 0 0 0 	# T5_2	T5
430 43 5 0.00000000 35.050589 15.686912 49.247981 0 0 0 	# T5_3	T5
431 44 1 0.00000000 2.370560 4.668435 46.894187 0 0 0 	# T1_1	T1
432 44 2 0.00000000 5.418140 2.962058 47.138063 0 0 0 	# T2_1	T2
433 44 3 0.00000000 7.700250 4.416634 44.943497 0 0 0 	# T3_1	T3
434 44 1 0.00000000 8.183030 2.325861 42.175651 0 0 0 	# T1_2	T1
435 44 2 0.00000000 5.296405 1.825606 40.220150 0 0 0 	# T2_2	T2
436 44 3 0.00000000 2.380147 3.258290 41.542732 0 0 0 	# T3_2	T3
437 44 4 0.00000000 0.827246 5.225780 39.076945 0 0 0 	# T4_1	T4
438 44 5 0.00000000 53.339346 3.443440 37.350030 -1 0 0 	# T5_1	T5
439 44 5 0.00000000 51.233717 5.713384 35.698946 -1 0 0 	# T5_2	T5
440 44 5 0.00000000 47.885427 4.767828 36.103677 -1 0 0 	# T5_3	T5
441 45 1 0.00000000 46.484248 0.374333 60.453543 0 0 0 	# T1_1	T1
442 45 2 0.00000000 47.929568 3.146543 62.027545 0 0 0 	# T2_1	T2
443 45 3 0.00000000 45.411112 5.099467 63.477318 0 0 0 	# T3_1	T3
444 45 1 0.00000000 45.495277 4.695378 66.952659 0 0 0 	# T1_2	T1
445 45 2 0.00000000 42.342824 3.669418 68.073783 0 0 0 	# T2_2	T2
446 45 3 0.00000000 40.474479 6.475327 69.023554 0 0 0 	# T3_2	T3
447 45 4 0.00000000 42.383392 8.490327 71.157231 0 0 0 	# T4_1	T4